/*--------------------------------*- C++ -*----------------------------------*\
| =========                 |                                                 |
| \\      /  F ield         | OpenFOAM: The Open Source CFD Toolbox           |
|  \\    /   O peration     | Version:  2306                                  |
|   \\  /    A nd           | Website:  www.openfoam.com                      |
|    \\/     M anipulation  |                                                 |
\*---------------------------------------------------------------------------*/
FoamFile
{
    version     2.0;
    format      ascii;
    arch        "LSB;label=32;scalar=64";
    class       volVectorField;
    location    "10";
    object      U;
}
// * * * * * * * * * * * * * * * * * * * * * * * * * * * * * * * * * * * * * //

dimensions      [0 1 -1 0 0 0 0];

internalField   nonuniform List<vector> 
24
(
(0.791742 0.0539558 0)
(1.1191 0.0666871 0)
(0.80465 0.172629 0)
(1.17594 0.148737 0)
(0.78589 0.183622 0)
(1.2862 0.309057 0)
(0.448853 0.0956024 0)
(1.66107 0.336929 0)
(0.461739 0.169586 0)
(1.67525 0.00463296 0)
(0.261946 0.23462 0)
(1.33798 0.889436 -2.29101e-16)
(0.819531 0.843215 0)
(0.937986 1.13336 0)
(0.590768 0.963655 0)
(0.804534 0.89477 0)
(0.768703 1.0303 2.18874e-16)
(0.828115 0.91168 -1.54495e-17)
(0.687589 1.13148 -3.97173e-16)
(0.611063 0.820941 2.40697e-17)
(0.44506 1.14557 1.96329e-16)
(0.545376 0.821606 -7.45162e-18)
(1.5447 0.467061 0)
(1.03099 0.402508 0)
)
;

boundaryField
{
    AMI1
    {
        type            cyclicAMI;
        value           nonuniform List<vector> 5((0.770179 0.237596 0) (0.932373 0.530387 0) (1.00895 0.672147 4.97996e-17) (1.12236 0.737223 -7.14073e-17) (1.45289 0.332777 2.80471e-17));
    }
    AMI2
    {
        type            cyclicAMI;
        value           nonuniform List<vector> 7((0.690524 0.150654 0) (0.986367 0.479566 0) (0.894379 0.572228 0) (1.02745 0.669681 1.09437e-16) (1.13684 0.731415 -1.98586e-16) (1.0559 0.674791 9.81647e-17) (1.60998 0.235847 0));
    }
    top
    {
        type            uniformFixedValue;
        uniformValue    constant (0 0 0);
        value           uniform (0 0 0);
    }
    bottom
    {
        type            uniformFixedValue;
        uniformValue    constant (0 0 0);
        value           uniform (0 0 0);
    }
    left
    {
        type            fixedValue;
        value           uniform (1 0 0);
    }
    right
    {
        type            inletOutlet;
        inletValue      uniform (0 0 0);
        value           nonuniform List<vector> 7((1.33798 0.889436 -2.29101e-16) (0.937986 1.13336 0) (0.804534 0.89477 0) (0.828115 0.91168 -1.54495e-17) (0.611063 0.820941 2.40697e-17) (0.545376 0.821606 -7.45162e-18) (1.03099 0.402508 0));
    }
    frontAndBack
    {
        type            empty;
    }
}


// ************************************************************************* //
