/*--------------------------------*- C++ -*----------------------------------*\
| =========                 |                                                 |
| \\      /  F ield         | OpenFOAM: The Open Source CFD Toolbox           |
|  \\    /   O peration     | Version:  2306                                  |
|   \\  /    A nd           | Website:  www.openfoam.com                      |
|    \\/     M anipulation  |                                                 |
\*---------------------------------------------------------------------------*/
FoamFile
{
    version     2.0;
    format      ascii;
    arch        "LSB;label=32;scalar=64";
    class       volScalarField;
    location    "60";
    object      p;
}
// * * * * * * * * * * * * * * * * * * * * * * * * * * * * * * * * * * * * * //

dimensions      [0 2 -2 0 0 0 0];

internalField   nonuniform List<scalar> 
24
(
1.5454
1.70028
1.41709
1.53453
1.23908
1.27882
1.03493
0.933418
0.972155
0.528837
1.7355
0.615836
1.52667
0.375986
1.28819
0.206239
1.08474
0.0628888
0.760705
-0.0284477
0.54265
-0.0467233
0.166076
-0.168817
)
;

boundaryField
{
    AMI1
    {
        type            cyclicAMI;
        useImplicit     true;
        value           nonuniform List<scalar> 5(1.68806 1.46246 1.17317 0.800336 0.401253);
    }
    AMI2
    {
        type            cyclicAMI;
        useImplicit     true;
        value           nonuniform List<scalar> 7(1.71789 1.56375 1.38579 1.18178 0.881602 0.657118 0.347456);
    }
    top
    {
        type            zeroGradient;
    }
    bottom
    {
        type            zeroGradient;
    }
    left
    {
        type            zeroGradient;
    }
    right
    {
        type            fixedValue;
        value           uniform 0;
    }
    frontAndBack
    {
        type            empty;
    }
}


// ************************************************************************* //
