/*--------------------------------*- C++ -*----------------------------------*\
| =========                 |                                                 |
| \\      /  F ield         | OpenFOAM: The Open Source CFD Toolbox           |
|  \\    /   O peration     | Version:  2306                                  |
|   \\  /    A nd           | Website:  www.openfoam.com                      |
|    \\/     M anipulation  |                                                 |
\*---------------------------------------------------------------------------*/
FoamFile
{
    version     2.0;
    format      ascii;
    arch        "LSB;label=32;scalar=64";
    class       volVectorField;
    location    "60";
    object      U;
}
// * * * * * * * * * * * * * * * * * * * * * * * * * * * * * * * * * * * * * //

dimensions      [0 1 -1 0 0 0 0];

internalField   nonuniform List<vector> 
24
(
(0.788474 -0.124587 0)
(1.13039 0.289604 0)
(0.649321 0.275992 0)
(1.28608 0.0490016 0)
(0.831605 0.151635 0)
(1.26847 0.352029 0)
(0.183353 0.190867 0)
(1.94529 0.129562 0)
(0.409883 0.216883 0)
(1.69805 -0.080931 0)
(0.150086 -0.0530083 0)
(1.33031 0.879375 -2.27476e-16)
(0.835329 0.652087 0)
(0.962974 1.51172 0)
(0.486187 1.01308 0)
(0.922685 1.24649 0)
(0.790879 0.925405 1.64434e-16)
(0.959511 1.17783 -3.69829e-18)
(0.900774 0.883378 -2.71991e-16)
(0.772305 1.11315 1.47964e-17)
(0.121261 1.21138 2.07203e-16)
(0.262776 1.27475 -2.05224e-17)
(1.46317 0.322702 0)
(1.33191 0.276293 0)
)
;

boundaryField
{
    AMI1
    {
        type            cyclicAMI;
        value           nonuniform List<vector> 5((0.738128 0.219025 0) (0.960952 0.453685 0) (1.01576 0.641978 3.92987e-17) (1.25599 0.576756 -3.33112e-17) (1.38891 0.247839 2.96004e-17));
    }
    AMI2
    {
        type            cyclicAMI;
        value           nonuniform List<vector> 7((0.640236 0.118298 0) (1.02957 0.398664 0) (0.884375 0.561343 0) (1.02968 0.638717 8.22172e-17) (1.35535 0.528716 -1.35996e-16) (0.983825 0.628372 1.03601e-16) (1.58061 0.120885 0));
    }
    top
    {
        type            uniformFixedValue;
        uniformValue    constant (0 0 0);
        value           uniform (0 0 0);
    }
    bottom
    {
        type            uniformFixedValue;
        uniformValue    constant (0 0 0);
        value           uniform (0 0 0);
    }
    left
    {
        type            fixedValue;
        value           uniform (1 0 0);
    }
    right
    {
        type            inletOutlet;
        inletValue      uniform (0 0 0);
        value           nonuniform List<vector> 7((1.33031 0.879375 -2.27476e-16) (0.962974 1.51172 0) (0.922685 1.24649 0) (0.959511 1.17783 -3.69829e-18) (0.772305 1.11315 1.47964e-17) (0.262776 1.27475 -2.05224e-17) (1.33191 0.276293 0));
    }
    frontAndBack
    {
        type            empty;
    }
}


// ************************************************************************* //
