/*--------------------------------*- C++ -*----------------------------------*\
| =========                 |                                                 |
| \\      /  F ield         | OpenFOAM: The Open Source CFD Toolbox           |
|  \\    /   O peration     | Version:  2306                                  |
|   \\  /    A nd           | Website:  www.openfoam.com                      |
|    \\/     M anipulation  |                                                 |
\*---------------------------------------------------------------------------*/
FoamFile
{
    version     2.0;
    format      ascii;
    arch        "LSB;label=32;scalar=64";
    class       volVectorField;
    location    "20";
    object      U;
}
// * * * * * * * * * * * * * * * * * * * * * * * * * * * * * * * * * * * * * //

dimensions      [0 1 -1 0 0 0 0];

internalField   nonuniform List<vector> 
24
(
(0.764605 -0.0741877 0)
(1.15337 0.231127 0)
(0.692864 0.236982 0)
(1.24252 0.103166 0)
(0.803395 0.154943 0)
(1.29725 0.347389 0)
(0.181828 0.191404 0)
(1.92976 0.134205 0)
(0.462804 0.179819 0)
(1.64078 -0.0398853 0)
(0.169129 -0.0147279 0)
(1.40548 0.850523 -2.39248e-16)
(0.827545 0.640704 0)
(1.01182 1.52501 0)
(0.521776 0.973325 0)
(0.937484 1.2843 0)
(0.854203 0.857541 1.58282e-16)
(1.01375 1.16592 -5.69773e-18)
(0.890681 0.882085 -2.76226e-16)
(0.73456 1.15205 1.27488e-17)
(0.16511 1.22218 2.23603e-16)
(-0.149599 0.993227 -1.94433e-17)
(1.561 0.235084 0)
(1.52559 0.329065 0)
)
;

boundaryField
{
    AMI1
    {
        type            cyclicAMI;
        value           nonuniform List<vector> 5((0.755311 0.201833 0) (0.947671 0.46697 0) (1.05459 0.612489 3.67989e-17) (1.25474 0.581023 -3.10068e-17) (1.40147 0.238613 3.19433e-17));
    }
    AMI2
    {
        type            cyclicAMI;
        value           nonuniform List<vector> 7((0.661251 0.108199 0) (1.0172 0.397527 0) (0.887622 0.562668 0) (1.07573 0.602465 7.91411e-17) (1.34697 0.529464 -1.38113e-16) (0.989638 0.643376 1.11802e-16) (1.60089 0.0975993 0));
    }
    top
    {
        type            uniformFixedValue;
        uniformValue    constant (0 0 0);
        value           uniform (0 0 0);
    }
    bottom
    {
        type            uniformFixedValue;
        uniformValue    constant (0 0 0);
        value           uniform (0 0 0);
    }
    left
    {
        type            fixedValue;
        value           uniform (1 0 0);
    }
    right
    {
        type            inletOutlet;
        inletValue      uniform (0 0 0);
        value           nonuniform List<vector> 7((1.40548 0.850523 -2.39248e-16) (1.01182 1.52501 0) (0.937484 1.2843 0) (1.01375 1.16592 -5.69773e-18) (0.73456 1.15205 1.27488e-17) (0 0 0) (1.52559 0.329065 0));
    }
    frontAndBack
    {
        type            empty;
    }
}


// ************************************************************************* //
