/*--------------------------------*- C++ -*----------------------------------*\
| =========                 |                                                 |
| \\      /  F ield         | OpenFOAM: The Open Source CFD Toolbox           |
|  \\    /   O peration     | Version:  2306                                  |
|   \\  /    A nd           | Website:  www.openfoam.com                      |
|    \\/     M anipulation  |                                                 |
\*---------------------------------------------------------------------------*/
FoamFile
{
    version     2.0;
    format      ascii;
    arch        "LSB;label=32;scalar=64";
    class       volVectorField;
    location    "100";
    object      U;
}
// * * * * * * * * * * * * * * * * * * * * * * * * * * * * * * * * * * * * * //

dimensions      [0 1 -1 0 0 0 0];

internalField   nonuniform List<vector> 
24
(
(0.790118 -0.120698 0)
(1.12841 0.2849 0)
(0.650329 0.274064 0)
(1.28586 0.0510329 0)
(0.829141 0.152609 0)
(1.27017 0.351142 0)
(0.18088 0.189336 0)
(1.94689 0.130083 0)
(0.408136 0.219675 0)
(1.69868 -0.0841386 0)
(0.15381 -0.0482773 0)
(1.33052 0.878762 -2.26709e-16)
(0.834083 0.653496 0)
(0.963039 1.50779 0)
(0.488182 1.01287 0)
(0.919916 1.24336 0)
(0.7862 0.930907 1.64776e-16)
(0.953885 1.17557 -3.80333e-18)
(0.908195 0.881651 -2.71513e-16)
(0.77022 1.10198 1.51128e-17)
(0.115351 1.21678 2.07353e-16)
(0.257559 1.26308 -2.07633e-17)
(1.46239 0.325552 0)
(1.33306 0.276291 0)
)
;

boundaryField
{
    AMI1
    {
        type            cyclicAMI;
        value           nonuniform List<vector> 5((0.738293 0.218565 0) (0.961144 0.454943 0) (1.01561 0.643361 3.94549e-17) (1.25765 0.577681 -3.31422e-17) (1.3881 0.248025 2.96219e-17));
    }
    AMI2
    {
        type            cyclicAMI;
        value           nonuniform List<vector> 7((0.641111 0.118312 0) (1.02848 0.399038 0) (0.885453 0.561963 0) (1.02819 0.641024 8.23881e-17) (1.35987 0.527973 -1.35756e-16) (0.981479 0.630588 1.03677e-16) (1.58053 0.120707 0));
    }
    top
    {
        type            uniformFixedValue;
        uniformValue    constant (0 0 0);
        value           uniform (0 0 0);
    }
    bottom
    {
        type            uniformFixedValue;
        uniformValue    constant (0 0 0);
        value           uniform (0 0 0);
    }
    left
    {
        type            fixedValue;
        value           uniform (1 0 0);
    }
    right
    {
        type            inletOutlet;
        inletValue      uniform (0 0 0);
        value           nonuniform List<vector> 7((1.33052 0.878762 -2.26709e-16) (0.963039 1.50779 0) (0.919916 1.24336 0) (0.953885 1.17557 -3.80333e-18) (0.77022 1.10198 1.51128e-17) (0.257559 1.26308 -2.07633e-17) (1.33306 0.276291 0));
    }
    frontAndBack
    {
        type            empty;
    }
}


// ************************************************************************* //
