/*--------------------------------*- C++ -*----------------------------------*\
| =========                 |                                                 |
| \\      /  F ield         | OpenFOAM: The Open Source CFD Toolbox           |
|  \\    /   O peration     | Version:  2306                                  |
|   \\  /    A nd           | Website:  www.openfoam.com                      |
|    \\/     M anipulation  |                                                 |
\*---------------------------------------------------------------------------*/
FoamFile
{
    version     2.0;
    format      ascii;
    arch        "LSB;label=32;scalar=64";
    class       volVectorField;
    location    "50";
    object      U;
}
// * * * * * * * * * * * * * * * * * * * * * * * * * * * * * * * * * * * * * //

dimensions      [0 1 -1 0 0 0 0];

internalField   nonuniform List<vector> 
24
(
(0.772154 -0.12815 0)
(1.1473 0.292345 0)
(0.663769 0.281592 0)
(1.26892 0.0443966 0)
(0.826031 0.150117 0)
(1.27861 0.364464 0)
(0.163945 0.185674 0)
(1.96222 0.141994 0)
(0.400369 0.221434 0)
(1.70496 -0.0855236 0)
(0.146264 -0.0646906 0)
(1.31707 0.887629 -2.28181e-16)
(0.828765 0.652565 0)
(0.952696 1.52321 0)
(0.481938 1.03432 0)
(0.922577 1.25191 0)
(0.784077 0.924762 1.68078e-16)
(0.951119 1.1671 -4.02327e-18)
(0.885866 0.882793 -2.78322e-16)
(0.766344 1.10801 1.56728e-17)
(0.1388 1.2132 2.04359e-16)
(0.301616 1.22972 -1.97885e-17)
(1.4592 0.342352 0)
(1.30502 0.283262 0)
)
;

boundaryField
{
    AMI1
    {
        type            cyclicAMI;
        value           nonuniform List<vector> 5((0.744282 0.216292 0) (0.949749 0.457553 0) (1.01703 0.649441 4.01475e-17) (1.26396 0.583196 -3.57293e-17) (1.39345 0.252822 2.91942e-17));
    }
    AMI2
    {
        type            cyclicAMI;
        value           nonuniform List<vector> 7((0.646782 0.113827 0) (1.02452 0.39807 0) (0.876398 0.571365 0) (1.03134 0.644613 8.40388e-17) (1.35568 0.534641 -1.39161e-16) (0.999057 0.632095 1.0218e-16) (1.58208 0.128414 0));
    }
    top
    {
        type            uniformFixedValue;
        uniformValue    constant (0 0 0);
        value           uniform (0 0 0);
    }
    bottom
    {
        type            uniformFixedValue;
        uniformValue    constant (0 0 0);
        value           uniform (0 0 0);
    }
    left
    {
        type            fixedValue;
        value           uniform (1 0 0);
    }
    right
    {
        type            inletOutlet;
        inletValue      uniform (0 0 0);
        value           nonuniform List<vector> 7((1.31707 0.887629 -2.28181e-16) (0.952696 1.52321 0) (0.922577 1.25191 0) (0.951119 1.1671 -4.02327e-18) (0.766344 1.10801 1.56728e-17) (0.301616 1.22972 -1.97885e-17) (1.30502 0.283262 0));
    }
    frontAndBack
    {
        type            empty;
    }
}


// ************************************************************************* //
