/*--------------------------------*- C++ -*----------------------------------*\
| =========                 |                                                 |
| \\      /  F ield         | OpenFOAM: The Open Source CFD Toolbox           |
|  \\    /   O peration     | Version:  2306                                  |
|   \\  /    A nd           | Website:  www.openfoam.com                      |
|    \\/     M anipulation  |                                                 |
\*---------------------------------------------------------------------------*/
FoamFile
{
    version     2.0;
    format      ascii;
    arch        "LSB;label=32;scalar=64";
    class       volVectorField;
    location    "30";
    object      U;
}
// * * * * * * * * * * * * * * * * * * * * * * * * * * * * * * * * * * * * * //

dimensions      [0 1 -1 0 0 0 0];

internalField   nonuniform List<vector> 
24
(
(0.743405 -0.120243 0)
(1.15688 0.2805 0)
(0.679353 0.347384 0)
(1.20939 -0.0707785 0)
(0.813929 0.225902 0)
(1.32886 0.217759 0)
(0.205401 0.335021 0)
(1.96376 -0.0494778 0)
(0.454701 0.177201 0)
(1.6843 -0.054089 0)
(0.167576 -0.0536944 0)
(1.353 0.907181 -2.31444e-16)
(0.880526 0.756145 0)
(0.999576 1.59275 0)
(0.578832 1.19031 0)
(0.941821 1.29594 0)
(0.872303 1.0689 1.66589e-16)
(0.943356 1.19158 -7.76911e-18)
(0.992404 0.89293 -2.76139e-16)
(0.728268 1.04616 1.63949e-17)
(0.10361 1.26806 2.29266e-16)
(0.0713301 1.39675 -1.47755e-17)
(1.44637 0.29645 0)
(1.3925 0.257826 0)
)
;

boundaryField
{
    AMI1
    {
        type            cyclicAMI;
        value           nonuniform List<vector> 5((0.76408 0.229094 0) (0.958762 0.46673 0) (1.0882 0.639434 3.97719e-17) (1.28762 0.502111 -2.97685e-17) (1.37351 0.259982 3.27522e-17));
    }
    AMI2
    {
        type            cyclicAMI;
        value           nonuniform List<vector> 7((0.66223 0.113403 0) (1.03446 0.412939 0) (0.90606 0.588619 0) (1.10058 0.643332 8.32946e-17) (1.41459 0.44845 -1.3807e-16) (0.977791 0.60837 1.14633e-16) (1.56533 0.12118 0));
    }
    top
    {
        type            uniformFixedValue;
        uniformValue    constant (0 0 0);
        value           uniform (0 0 0);
    }
    bottom
    {
        type            uniformFixedValue;
        uniformValue    constant (0 0 0);
        value           uniform (0 0 0);
    }
    left
    {
        type            fixedValue;
        value           uniform (1 0 0);
    }
    right
    {
        type            inletOutlet;
        inletValue      uniform (0 0 0);
        value           nonuniform List<vector> 7((1.353 0.907181 -2.31444e-16) (0.999576 1.59275 0) (0.941821 1.29594 0) (0.943356 1.19158 -7.76911e-18) (0.728268 1.04616 1.63949e-17) (0 0 0) (1.3925 0.257826 0));
    }
    frontAndBack
    {
        type            empty;
    }
}


// ************************************************************************* //
