/*--------------------------------*- C++ -*----------------------------------*\
| =========                 |                                                 |
| \\      /  F ield         | OpenFOAM: The Open Source CFD Toolbox           |
|  \\    /   O peration     | Version:  2306                                  |
|   \\  /    A nd           | Website:  www.openfoam.com                      |
|    \\/     M anipulation  |                                                 |
\*---------------------------------------------------------------------------*/
FoamFile
{
    version     2.0;
    format      ascii;
    arch        "LSB;label=32;scalar=64";
    class       volScalarField;
    location    "90";
    object      p;
}
// * * * * * * * * * * * * * * * * * * * * * * * * * * * * * * * * * * * * * //

dimensions      [0 2 -2 0 0 0 0];

internalField   nonuniform List<scalar> 
24
(
1.54073
1.69558
1.41275
1.52956
1.23439
1.27434
1.03001
0.928318
0.967617
0.524577
1.72922
0.612027
1.52142
0.374967
1.28447
0.206161
1.08259
0.0636926
0.75714
-0.0287037
0.53796
-0.0484217
0.164164
-0.172298
)
;

boundaryField
{
    AMI1
    {
        type            cyclicAMI;
        useImplicit     true;
        value           nonuniform List<scalar> 5(1.68272 1.45779 1.16964 0.795762 0.39777);
    }
    AMI2
    {
        type            cyclicAMI;
        useImplicit     true;
        value           nonuniform List<scalar> 7(1.7124 1.5587 1.38149 1.17847 0.877332 0.652391 0.344371);
    }
    top
    {
        type            zeroGradient;
    }
    bottom
    {
        type            zeroGradient;
    }
    left
    {
        type            zeroGradient;
    }
    right
    {
        type            fixedValue;
        value           uniform 0;
    }
    frontAndBack
    {
        type            empty;
    }
}


// ************************************************************************* //
