/*--------------------------------*- C++ -*----------------------------------*\
| =========                 |                                                 |
| \\      /  F ield         | OpenFOAM: The Open Source CFD Toolbox           |
|  \\    /   O peration     | Version:  2306                                  |
|   \\  /    A nd           | Website:  www.openfoam.com                      |
|    \\/     M anipulation  |                                                 |
\*---------------------------------------------------------------------------*/
FoamFile
{
    version     2.0;
    format      ascii;
    arch        "LSB;label=32;scalar=64";
    class       volVectorField;
    location    "90";
    object      U;
}
// * * * * * * * * * * * * * * * * * * * * * * * * * * * * * * * * * * * * * //

dimensions      [0 1 -1 0 0 0 0];

internalField   nonuniform List<vector> 
24
(
(0.790201 -0.120705 0)
(1.12836 0.284951 0)
(0.65034 0.274052 0)
(1.28595 0.0512272 0)
(0.828987 0.152486 0)
(1.27042 0.351485 0)
(0.180621 0.189157 0)
(1.94713 0.130664 0)
(0.407932 0.219421 0)
(1.69887 -0.0838955 0)
(0.153743 -0.0483422 0)
(1.33007 0.87922 -2.2669e-16)
(0.833942 0.653561 0)
(0.962717 1.50784 0)
(0.487543 1.01289 0)
(0.919863 1.24319 0)
(0.785898 0.930444 1.64818e-16)
(0.954049 1.17524 -3.78597e-18)
(0.907394 0.881479 -2.71594e-16)
(0.770388 1.10187 1.51029e-17)
(0.115713 1.21607 2.0716e-16)
(0.259726 1.26161 -2.07294e-17)
(1.46221 0.32597 0)
(1.33189 0.276159 0)
)
;

boundaryField
{
    AMI1
    {
        type            cyclicAMI;
        value           nonuniform List<vector> 5((0.738221 0.218576 0) (0.960974 0.455058 0) (1.01553 0.643356 3.94641e-17) (1.25761 0.57777 -3.32069e-17) (1.38818 0.248195 2.95942e-17));
    }
    AMI2
    {
        type            cyclicAMI;
        value           nonuniform List<vector> 7((0.64105 0.118304 0) (1.02843 0.399139 0) (0.885193 0.562082 0) (1.02816 0.640965 8.24092e-17) (1.35959 0.528154 -1.35797e-16) (0.981769 0.630457 1.0358e-16) (1.58054 0.121037 0));
    }
    top
    {
        type            uniformFixedValue;
        uniformValue    constant (0 0 0);
        value           uniform (0 0 0);
    }
    bottom
    {
        type            uniformFixedValue;
        uniformValue    constant (0 0 0);
        value           uniform (0 0 0);
    }
    left
    {
        type            fixedValue;
        value           uniform (1 0 0);
    }
    right
    {
        type            inletOutlet;
        inletValue      uniform (0 0 0);
        value           nonuniform List<vector> 7((1.33007 0.87922 -2.2669e-16) (0.962717 1.50784 0) (0.919863 1.24319 0) (0.954049 1.17524 -3.78597e-18) (0.770388 1.10187 1.51029e-17) (0.259726 1.26161 -2.07294e-17) (1.33189 0.276159 0));
    }
    frontAndBack
    {
        type            empty;
    }
}


// ************************************************************************* //
