/*--------------------------------*- C++ -*----------------------------------*\
| =========                 |                                                 |
| \\      /  F ield         | OpenFOAM: The Open Source CFD Toolbox           |
|  \\    /   O peration     | Version:  2306                                  |
|   \\  /    A nd           | Website:  www.openfoam.com                      |
|    \\/     M anipulation  |                                                 |
\*---------------------------------------------------------------------------*/
FoamFile
{
    version     2.0;
    format      ascii;
    arch        "LSB;label=32;scalar=64";
    class       volVectorField;
    location    "80";
    object      U;
}
// * * * * * * * * * * * * * * * * * * * * * * * * * * * * * * * * * * * * * //

dimensions      [0 1 -1 0 0 0 0];

internalField   nonuniform List<vector> 
24
(
(0.790482 -0.120907 0)
(1.12816 0.285269 0)
(0.649863 0.273976 0)
(1.28659 0.0513395 0)
(0.828816 0.152463 0)
(1.27021 0.351759 0)
(0.180596 0.188768 0)
(1.94689 0.131218 0)
(0.40756 0.220108 0)
(1.69913 -0.0844507 0)
(0.153638 -0.0488958 0)
(1.32966 0.879437 -2.26714e-16)
(0.834469 0.653528 0)
(0.961873 1.50798 0)
(0.486719 1.01377 0)
(0.919544 1.24314 0)
(0.786117 0.931306 1.65065e-16)
(0.953428 1.1749 -3.80868e-18)
(0.907271 0.883548 -2.72037e-16)
(0.76875 1.10134 1.51879e-17)
(0.116422 1.21747 2.07151e-16)
(0.259428 1.25588 -2.07476e-17)
(1.46282 0.327009 0)
(1.33124 0.277378 0)
)
;

boundaryField
{
    AMI1
    {
        type            cyclicAMI;
        value           nonuniform List<vector> 5((0.73816 0.218533 0) (0.961171 0.455359 0) (1.01543 0.644011 3.95204e-17) (1.25761 0.578937 -3.33353e-17) (1.38863 0.248487 2.9593e-17));
    }
    AMI2
    {
        type            cyclicAMI;
        value           nonuniform List<vector> 7((0.640898 0.118187 0) (1.02884 0.39922 0) (0.885015 0.562595 0) (1.02816 0.641533 8.25323e-17) (1.35941 0.529437 -1.36018e-16) (0.982104 0.631209 1.03576e-16) (1.58097 0.121279 0));
    }
    top
    {
        type            uniformFixedValue;
        uniformValue    constant (0 0 0);
        value           uniform (0 0 0);
    }
    bottom
    {
        type            uniformFixedValue;
        uniformValue    constant (0 0 0);
        value           uniform (0 0 0);
    }
    left
    {
        type            fixedValue;
        value           uniform (1 0 0);
    }
    right
    {
        type            inletOutlet;
        inletValue      uniform (0 0 0);
        value           nonuniform List<vector> 7((1.32966 0.879437 -2.26714e-16) (0.961873 1.50798 0) (0.919544 1.24314 0) (0.953428 1.1749 -3.80868e-18) (0.76875 1.10134 1.51879e-17) (0.259428 1.25588 -2.07476e-17) (1.33124 0.277378 0));
    }
    frontAndBack
    {
        type            empty;
    }
}


// ************************************************************************* //
