/*--------------------------------*- C++ -*----------------------------------*\
| =========                 |                                                 |
| \\      /  F ield         | OpenFOAM: The Open Source CFD Toolbox           |
|  \\    /   O peration     | Version:  2306                                  |
|   \\  /    A nd           | Website:  www.openfoam.com                      |
|    \\/     M anipulation  |                                                 |
\*---------------------------------------------------------------------------*/
FoamFile
{
    version     2.0;
    format      ascii;
    arch        "LSB;label=32;scalar=64";
    class       volVectorField;
    location    "70";
    object      U;
}
// * * * * * * * * * * * * * * * * * * * * * * * * * * * * * * * * * * * * * //

dimensions      [0 1 -1 0 0 0 0];

internalField   nonuniform List<vector> 
24
(
(0.79116 -0.121756 0)
(1.1273 0.286502 0)
(0.649164 0.27441 0)
(1.28686 0.0504384 0)
(0.829493 0.152961 0)
(1.2692 0.350283 0)
(0.182195 0.190191 0)
(1.94559 0.128409 0)
(0.409132 0.220163 0)
(1.69801 -0.0843622 0)
(0.152849 -0.0493496 0)
(1.33138 0.87877 -2.27002e-16)
(0.836688 0.653671 0)
(0.963111 1.50895 0)
(0.487804 1.01431 0)
(0.920274 1.24448 0)
(0.789895 0.93178 1.64729e-16)
(0.95497 1.17637 -3.83588e-18)
(0.907684 0.885625 -2.72006e-16)
(0.767115 1.1049 1.51352e-17)
(0.116752 1.21835 2.07885e-16)
(0.252644 1.26274 -2.0805e-17)
(1.46401 0.324572 0)
(1.33512 0.278353 0)
)
;

boundaryField
{
    AMI1
    {
        type            cyclicAMI;
        value           nonuniform List<vector> 5((0.737764 0.219008 0) (0.962093 0.455094 0) (1.01638 0.64363 3.94027e-17) (1.25715 0.578315 -3.31692e-17) (1.38854 0.247787 2.96979e-17));
    }
    AMI2
    {
        type            cyclicAMI;
        value           nonuniform List<vector> 7((0.640072 0.118576 0) (1.02986 0.399267 0) (0.885566 0.562358 0) (1.02955 0.641031 8.23644e-17) (1.359 0.529205 -1.36003e-16) (0.981653 0.630824 1.03942e-16) (1.58101 0.120105 0));
    }
    top
    {
        type            uniformFixedValue;
        uniformValue    constant (0 0 0);
        value           uniform (0 0 0);
    }
    bottom
    {
        type            uniformFixedValue;
        uniformValue    constant (0 0 0);
        value           uniform (0 0 0);
    }
    left
    {
        type            fixedValue;
        value           uniform (1 0 0);
    }
    right
    {
        type            inletOutlet;
        inletValue      uniform (0 0 0);
        value           nonuniform List<vector> 7((1.33138 0.87877 -2.27002e-16) (0.963111 1.50895 0) (0.920274 1.24448 0) (0.95497 1.17637 -3.83588e-18) (0.767115 1.1049 1.51352e-17) (0.252644 1.26274 -2.0805e-17) (1.33512 0.278353 0));
    }
    frontAndBack
    {
        type            empty;
    }
}


// ************************************************************************* //
