/*--------------------------------*- C++ -*----------------------------------*\
| =========                 |                                                 |
| \\      /  F ield         | OpenFOAM: The Open Source CFD Toolbox           |
|  \\    /   O peration     | Version:  2306                                  |
|   \\  /    A nd           | Website:  www.openfoam.com                      |
|    \\/     M anipulation  |                                                 |
\*---------------------------------------------------------------------------*/
FoamFile
{
    version     2.0;
    format      ascii;
    arch        "LSB;label=32;scalar=64";
    class       volVectorField;
    location    "40";
    object      U;
}
// * * * * * * * * * * * * * * * * * * * * * * * * * * * * * * * * * * * * * //

dimensions      [0 1 -1 0 0 0 0];

internalField   nonuniform List<vector> 
24
(
(0.751563 -0.127821 0)
(1.15687 0.289283 0)
(0.6719 0.327602 0)
(1.23448 -0.0178238 0)
(0.816928 0.183464 0)
(1.29927 0.284039 0)
(0.205716 0.311569 0)
(1.94608 -0.0346266 0)
(0.431808 0.204832 0)
(1.69385 -0.0704395 0)
(0.154085 -0.0835394 0)
(1.33594 0.922935 -2.30535e-16)
(0.846603 0.716953 0)
(0.966186 1.54674 0)
(0.53472 1.16116 0)
(0.946708 1.23947 0)
(0.849626 1.05722 1.71507e-16)
(0.93676 1.14521 -7.20342e-18)
(0.968885 0.950151 -2.84516e-16)
(0.724165 1.00997 1.59846e-17)
(0.174931 1.31266 2.16087e-16)
(0.208467 1.15487 -1.292e-17)
(1.40158 0.307446 0)
(1.27376 0.266276 0)
)
;

boundaryField
{
    AMI1
    {
        type            cyclicAMI;
        value           nonuniform List<vector> 5((0.754411 0.217228 0) (0.951433 0.476482 0) (1.06047 0.670407 4.09298e-17) (1.28735 0.535442 -3.4986e-17) (1.37248 0.262105 3.08696e-17));
    }
    AMI2
    {
        type            cyclicAMI;
        value           nonuniform List<vector> 7((0.65548 0.102872 0) (1.02502 0.410986 0) (0.89108 0.601856 0) (1.07445 0.67063 8.57533e-17) (1.3928 0.489629 -1.42258e-16) (1.01006 0.631853 1.08044e-16) (1.54772 0.118503 0));
    }
    top
    {
        type            uniformFixedValue;
        uniformValue    constant (0 0 0);
        value           uniform (0 0 0);
    }
    bottom
    {
        type            uniformFixedValue;
        uniformValue    constant (0 0 0);
        value           uniform (0 0 0);
    }
    left
    {
        type            fixedValue;
        value           uniform (1 0 0);
    }
    right
    {
        type            inletOutlet;
        inletValue      uniform (0 0 0);
        value           nonuniform List<vector> 7((1.33594 0.922935 -2.30535e-16) (0.966186 1.54674 0) (0.946708 1.23947 0) (0.93676 1.14521 -7.20342e-18) (0.724165 1.00997 1.59846e-17) (0.208467 1.15487 -1.292e-17) (1.27376 0.266276 0));
    }
    frontAndBack
    {
        type            empty;
    }
}


// ************************************************************************* //
